 # Fcc Cu oriented X=[100] Y=[010] Z=[001].
  
         256  atoms
           1  atom types
 
      0.000000000000      14.400000000000  xlo xhi
      0.000000000000      14.400000000000  ylo yhi
      0.000000000000      14.400000000000  zlo zhi
 
Masses
 
            1   63.54600000             # Cu
 
Atoms # atomic
 
         1    1       -0.000000217433       0.000000759395       0.000000288092
         2    1        1.800000652769       1.800000820416       0.000000290577
         3    1       -0.000000224914       1.800000926116       1.799999931971
         4    1        1.800000183109      -0.000000833762       1.799999400696
         5    1        3.599999370180      -0.000001000791      -0.000000692972
         6    1        5.400000376467       1.800000808980       0.000000063235
         7    1        3.600000930945       1.799999138589       1.799999707688
         8    1        5.400000721358       0.000000393122       1.800000611598
         9    1        7.199999963811       0.000000090242      -0.000000613875
        10    1        8.999999633887       1.799999661384       0.000000590973
        11    1        7.199999482229       1.800000919686       1.799999542062
        12    1        8.999999589695      -0.000000140997       1.799999089276
        13    1       10.799999470124      -0.000000075475       0.000000673592
        14    1       12.600000680754       1.800000913385       0.000000526740
        15    1       10.800000286778       1.800000762413       1.799999478471
        16    1       12.600000114360       0.000000873600       1.799999466156
        17    1        0.000000063269       3.600000254633       0.000000775466
        18    1        1.800000155499       5.399999914737       0.000000713936
        19    1       -0.000000724115       5.400000343762       1.799999886248
        20    1        1.800000029244       3.599999303667       1.800000040079
        21    1        3.599999980004       3.600000513853      -0.000000159628
        22    1        5.400000457748       5.399999640921       0.000000943414
        23    1        3.599999883832       5.400000897084       1.799999275330
        24    1        5.399999492642       3.600000361350       1.799999745964
        25    1        7.199999113918       3.599999709381       0.000000803685
        26    1        8.999999228587       5.400000078332      -0.000000911405
        27    1        7.199999782567       5.400000759395       1.800000288092
        28    1        9.000000652769       3.600000820416       1.800000290577
        29    1       10.799999775086       3.600000926116      -0.000000068029
        30    1       12.600000183109       5.399999166238      -0.000000599304
        31    1       10.799999370180       5.399998999209       1.799999307028
        32    1       12.600000376467       3.600000808980       1.800000063235
        33    1        0.000000930945       7.199999138589      -0.000000292312
        34    1        1.800000721358       9.000000393122       0.000000611598
        35    1       -0.000000036189       9.000000090242       1.799999386125
        36    1        1.799999633887       7.199999661384       1.800000590973
        37    1        3.599999482229       7.200000919686      -0.000000457938
        38    1        5.399999589695       8.999999859003      -0.000000910724
        39    1        3.599999470124       8.999999924525       1.800000673592
        40    1        5.400000680754       7.200000913385       1.800000526740
        41    1        7.200000286778       7.200000762413      -0.000000521529
        42    1        9.000000114360       9.000000873600      -0.000000533844
        43    1        7.200000063269       9.000000254633       1.800000775466
        44    1        9.000000155499       7.199999914737       1.800000713936
        45    1       10.799999275885       7.200000343762      -0.000000113752
        46    1       12.600000029244       8.999999303667       0.000000040079
        47    1       10.799999980004       9.000000513853       1.799999840372
        48    1       12.600000457748       7.199999640921       1.800000943414
        49    1       -0.000000116168      10.800000897084      -0.000000724670
        50    1        1.799999492642      12.600000361350      -0.000000254036
        51    1       -0.000000886082      12.599999709381       1.800000803685
        52    1        1.799999228587      10.800000078332       1.799999088595
        53    1        3.599999782567      10.800000759395       0.000000288092
        54    1        5.400000652769      12.600000820416       0.000000290577
        55    1        3.599999775086      12.600000926116       1.799999931971
        56    1        5.400000183109      10.799999166238       1.799999400696
        57    1        7.199999370180      10.799998999209      -0.000000692972
        58    1        9.000000376467      12.600000808980       0.000000063235
        59    1        7.200000930945      12.599999138589       1.799999707688
        60    1        9.000000721358      10.800000393122       1.800000611598
        61    1       10.799999963811      10.800000090242      -0.000000613875
        62    1       12.599999633887      12.599999661384       0.000000590973
        63    1       10.799999482229      12.600000919686       1.799999542062
        64    1       12.599999589695      10.799999859003       1.799999089276
        65    1       -0.000000529876      -0.000000075475       3.600000673592
        66    1        1.800000680754       1.800000913385       3.600000526740
        67    1        0.000000286778       1.800000762413       5.399999478471
        68    1        1.800000114360       0.000000873600       5.399999466156
        69    1        3.600000063269       0.000000254633       3.600000775466
        70    1        5.400000155499       1.799999914737       3.600000713936
        71    1        3.599999275885       1.800000343762       5.399999886248
        72    1        5.400000029244      -0.000000696333       5.400000040079
        73    1        7.199999980004       0.000000513853       3.599999840372
        74    1        9.000000457748       1.799999640921       3.600000943414
        75    1        7.199999883832       1.800000897084       5.399999275330
        76    1        8.999999492642       0.000000361350       5.399999745964
        77    1       10.799999113918      -0.000000290619       3.600000803685
        78    1       12.599999228587       1.800000078332       3.599999088595
        79    1       10.799999782567       1.800000759395       5.400000288092
        80    1       12.600000652769       0.000000820416       5.400000290577
        81    1       -0.000000224914       3.600000926116       3.599999931971
        82    1        1.800000183109       5.399999166238       3.599999400696
        83    1       -0.000000629820       5.399998999209       5.399999307028
        84    1        1.800000376467       3.600000808980       5.400000063235
        85    1        3.600000930945       3.599999138589       3.599999707688
        86    1        5.400000721358       5.400000393122       3.600000611598
        87    1        3.599999963811       5.400000090242       5.399999386125
        88    1        5.399999633887       3.599999661384       5.400000590973
        89    1        7.199999482229       3.600000919686       3.599999542062
        90    1        8.999999589695       5.399999859003       3.599999089276
        91    1        7.199999470124       5.399999924525       5.400000673592
        92    1        9.000000680754       3.600000913385       5.400000526740
        93    1       10.800000286778       3.600000762413       3.599999478471
        94    1       12.600000114360       5.400000873600       3.599999466156
        95    1       10.800000063269       5.400000254633       5.400000775466
        96    1       12.600000155499       3.599999914737       5.400000713936
        97    1       -0.000000724115       7.200000343762       3.599999886248
        98    1        1.800000029244       8.999999303667       3.600000040079
        99    1       -0.000000019996       9.000000513853       5.399999840372
       100    1        1.800000457748       7.199999640921       5.400000943414
       101    1        3.599999883832       7.200000897084       3.599999275330
       102    1        5.399999492642       9.000000361350       3.599999745964
       103    1        3.599999113918       8.999999709381       5.400000803685
       104    1        5.399999228587       7.200000078332       5.399999088595
       105    1        7.199999782567       7.200000759395       3.600000288092
       106    1        9.000000652769       9.000000820416       3.600000290577
       107    1        7.199999775086       9.000000926116       5.399999931971
       108    1        9.000000183109       7.199999166238       5.399999400696
       109    1       10.799999370180       7.199998999209       3.599999307028
       110    1       12.600000376467       9.000000808980       3.600000063235
       111    1       10.800000930945       8.999999138589       5.399999707688
       112    1       12.600000721358       7.200000393122       5.400000611598
       113    1       -0.000000036189      10.800000090242       3.599999386125
       114    1        1.799999633887      12.599999661384       3.600000590973
       115    1       -0.000000517771      12.600000919686       5.399999542062
       116    1        1.799999589695      10.799999859003       5.399999089276
       117    1        3.599999470124      10.799999924525       3.600000673592
       118    1        5.400000680754      12.600000913385       3.600000526740
       119    1        3.600000286778      12.600000762413       5.399999478471
       120    1        5.400000114360      10.800000873600       5.399999466156
       121    1        7.200000063269      10.800000254633       3.600000775466
       122    1        9.000000155499      12.599999914737       3.600000713936
       123    1        7.199999275885      12.600000343762       5.399999886248
       124    1        9.000000029244      10.799999303667       5.400000040079
       125    1       10.799999980004      10.800000513853       3.599999840372
       126    1       12.600000457748      12.599999640921       3.600000943414
       127    1       10.799999883832      12.600000897084       5.399999275330
       128    1       12.599999492642      10.800000361350       5.399999745964
       129    1       -0.000000886082      -0.000000290619       7.200000803685
       130    1        1.799999228587       1.800000078332       7.199999088595
       131    1       -0.000000217433       1.800000759395       9.000000288092
       132    1        1.800000652769       0.000000820416       9.000000290577
       133    1        3.599999775086       0.000000926116       7.199999931971
       134    1        5.400000183109       1.799999166238       7.199999400696
       135    1        3.599999370180       1.799998999209       8.999999307028
       136    1        5.400000376467       0.000000808980       9.000000063235
       137    1        7.200000930945      -0.000000861411       7.199999707688
       138    1        9.000000721358       1.800000393122       7.200000611598
       139    1        7.199999963811       1.800000090242       8.999999386125
       140    1        8.999999633887      -0.000000338616       9.000000590973
       141    1       10.799999482229       0.000000919686       7.199999542062
       142    1       12.599999589695       1.799999859003       7.199999089276
       143    1       10.799999470124       1.799999924525       9.000000673592
       144    1       12.600000680754       0.000000913385       9.000000526740
       145    1        0.000000286778       3.600000762413       7.199999478471
       146    1        1.800000114360       5.400000873600       7.199999466156
       147    1        0.000000063269       5.400000254633       9.000000775466
       148    1        1.800000155499       3.599999914737       9.000000713936
       149    1        3.599999275885       3.600000343762       7.199999886248
       150    1        5.400000029244       5.399999303667       7.200000040079
       151    1        3.599999980004       5.400000513853       8.999999840372
       152    1        5.400000457748       3.599999640921       9.000000943414
       153    1        7.199999883832       3.600000897084       7.199999275330
       154    1        8.999999492642       5.400000361350       7.199999745964
       155    1        7.199999113918       5.399999709381       9.000000803685
       156    1        8.999999228587       3.600000078332       8.999999088595
       157    1       10.799999782567       3.600000759395       7.200000288092
       158    1       12.600000652769       5.400000820416       7.200000290577
       159    1       10.799999775086       5.400000926116       8.999999931971
       160    1       12.600000183109       3.599999166238       8.999999400696
       161    1       -0.000000629820       7.199998999209       7.199999307028
       162    1        1.800000376467       9.000000808980       7.200000063235
       163    1        0.000000930945       8.999999138589       8.999999707688
       164    1        1.800000721358       7.200000393122       9.000000611598
       165    1        3.599999963811       7.200000090242       7.199999386125
       166    1        5.399999633887       8.999999661384       7.200000590973
       167    1        3.599999482229       9.000000919686       8.999999542062
       168    1        5.399999589695       7.199999859003       8.999999089276
       169    1        7.199999470124       7.199999924525       7.200000673592
       170    1        9.000000680754       9.000000913385       7.200000526740
       171    1        7.200000286778       9.000000762413       8.999999478471
       172    1        9.000000114360       7.200000873600       8.999999466156
       173    1       10.800000063269       7.200000254633       7.200000775466
       174    1       12.600000155499       8.999999914737       7.200000713936
       175    1       10.799999275885       9.000000343762       8.999999886248
       176    1       12.600000029244       7.199999303667       9.000000040079
       177    1       -0.000000019996      10.800000513853       7.199999840372
       178    1        1.800000457748      12.599999640921       7.200000943414
       179    1       -0.000000116168      12.600000897084       8.999999275330
       180    1        1.799999492642      10.800000361350       8.999999745964
       181    1        3.599999113918      10.799999709381       7.200000803685
       182    1        5.399999782567      12.600000759395       7.200000288092
       183    1        3.600000652769      12.600000820416       9.000000290577
       184    1        5.399999775086      10.800000926116       8.999999931971
       185    1        7.200000183109      10.799999166238       7.199999400696
       186    1        8.999999370180      12.599998999209       7.199999307028
       187    1        7.200000376467      12.600000808980       9.000000063235
       188    1        9.000000930945      10.799999138589       8.999999707688
       189    1       10.800000721358      10.800000393122       7.200000611598
       190    1       12.599999963811      12.600000090242       7.199999386125
       191    1       10.799999633887      12.599999661384       9.000000590973
       192    1       12.599999482229      10.800000919686       8.999999542062
       193    1       -0.000000410305      -0.000000140997      10.799999089276
       194    1        1.799999470124       1.799999924525      10.800000673592
       195    1        0.000000680754       1.800000913385      12.600000526740
       196    1        1.800000286778       0.000000762413      12.599999478471
       197    1        3.600000114360       0.000000873600      10.799999466156
       198    1        5.400000063269       1.800000254633      10.800000775466
       199    1        3.600000155499       1.799999914737      12.600000713936
       200    1        5.399999275885       0.000000343762      12.599999886248
       201    1        7.200000029244      -0.000000696333      10.800000040079
       202    1        8.999999980004       1.800000513853      10.799999840372
       203    1        7.200000457748       1.799999640921      12.600000943414
       204    1        8.999999883832       0.000000897084      12.599999275330
       205    1       10.799999492642       0.000000361350      10.799999745964
       206    1       12.599999113918       1.799999709381      10.800000803685
       207    1       10.799999782567       1.800000759395      12.600000288092
       208    1       12.600000652769       0.000000820416      12.600000290577
       209    1       -0.000000224914       3.600000926116      10.799999931971
       210    1        1.800000183109       5.399999166238      10.799999400696
       211    1       -0.000000629820       5.399998999209      12.599999307028
       212    1        1.800000376467       3.600000808980      12.600000063235
       213    1        3.600000930945       3.599999138589      10.799999707688
       214    1        5.400000721358       5.400000393122      10.800000611598
       215    1        3.599999963811       5.400000090242      12.599999386125
       216    1        5.399999633887       3.599999661384      12.600000590973
       217    1        7.199999482229       3.600000919686      10.799999542062
       218    1        8.999999589695       5.399999859003      10.799999089276
       219    1        7.199999470124       5.399999924525      12.600000673592
       220    1        9.000000680754       3.600000913385      12.600000526740
       221    1       10.800000286778       3.600000762413      10.799999478471
       222    1       12.600000114360       5.400000873600      10.799999466156
       223    1       10.800000063269       5.400000254633      12.600000775466
       224    1       12.600000155499       3.599999914737      12.600000713936
       225    1       -0.000000724115       7.200000343762      10.799999886248
       226    1        1.800000029244       8.999999303667      10.800000040079
       227    1       -0.000000019996       9.000000513853      12.599999840372
       228    1        1.800000457748       7.199999640921      12.600000943414
       229    1        3.599999883832       7.200000897084      10.799999275330
       230    1        5.399999492642       9.000000361350      10.799999745964
       231    1        3.599999113918       8.999999709381      12.600000803685
       232    1        5.399999782567       7.200000759395      12.600000288092
       233    1        7.200000652769       7.200000820416      10.800000290577
       234    1        8.999999775086       9.000000926116      10.799999931971
       235    1        7.200000183109       8.999999166238      12.599999400696
       236    1        8.999999370180       7.199998999209      12.599999307028
       237    1       10.800000376467       7.200000808980      10.800000063235
       238    1       12.600000930945       8.999999138589      10.799999707688
       239    1       10.800000721358       9.000000393122      12.600000611598
       240    1       12.599999963811       7.200000090242      12.599999386125
       241    1       -0.000000366113      10.799999661384      10.800000590973
       242    1        1.799999482229      12.600000919686      10.799999542062
       243    1       -0.000000410305      12.599999859003      12.599999089276
       244    1        1.799999470124      10.799999924525      12.600000673592
       245    1        3.600000680754      10.800000913385      10.800000526740
       246    1        5.400000286778      12.600000762413      10.799999478471
       247    1        3.600000114360      12.600000873600      12.599999466156
       248    1        5.400000063269      10.800000254633      12.600000775466
       249    1        7.200000155499      10.799999914737      10.800000713936
       250    1        8.999999275885      12.600000343762      10.799999886248
       251    1        7.200000029244      12.599999303667      12.600000040079
       252    1        8.999999980004      10.800000513853      12.599999840372
       253    1       10.800000457748      10.799999640921      10.800000943414
       254    1       12.599999883832      12.600000897084      10.799999275330
       255    1       10.799999492642      12.600000361350      12.599999745964
       256    1       12.599999113918      10.799999709381      12.600000803685
